# Probe 0 (-160 0 -1900)
# Probe 1 (-120 0 -1900)
# Probe 2 (240 0 -1900)
#       Probe             0             1             2
#        Time
   0.00119048  -2.84383e+09  -2.75638e+09  -2.08373e+09
   0.00262605   5.93508e+06   5.59839e+06   3.10307e+06
   0.00431798   1.05147e+07   1.01294e+07   7.22999e+06
   0.00630415   1.32514e+07   1.28027e+07   9.39454e+06
    0.0087317   1.45164e+07   1.40444e+07   1.04417e+07
    0.0116794   1.59213e+07   1.54153e+07   1.15408e+07
    0.0151631   1.69017e+07   1.63721e+07   1.23118e+07
    0.0195177   1.76205e+07   1.70725e+07   1.28637e+07
    0.0245981   1.88431e+07   1.82595e+07   1.37748e+07
    0.0309486   1.91674e+07   1.85759e+07   1.40313e+07
    0.0372991   2.21647e+07   2.14819e+07   1.62304e+07
    0.0436495   2.29508e+07   2.22438e+07   1.68104e+07
         0.05   2.38109e+07   2.30796e+07   1.74513e+07
    0.0571429   2.36508e+07   2.29257e+07   1.73498e+07
    0.0657143   2.33334e+07   2.26171e+07   1.71067e+07
    0.0771429   2.33298e+07   2.26139e+07   1.71062e+07
    0.0885714   2.76921e+07    2.6842e+07   2.03018e+07
          0.1   2.87454e+07   2.78634e+07   2.10791e+07
         0.11   3.20516e+07   3.10685e+07   2.35055e+07
         0.12   3.09436e+07   2.99972e+07   2.27089e+07
         0.13   3.20598e+07   3.10857e+07   2.35878e+07
         0.14   3.34744e+07   3.24634e+07    2.4668e+07
         0.15   3.33659e+07   3.23519e+07   2.45377e+07
         0.16   3.31164e+07   3.21038e+07   2.43092e+07
         0.17   3.33243e+07   3.23035e+07   2.44491e+07
         0.18   3.36473e+07   3.26173e+07   2.46904e+07
         0.19   3.38402e+07   3.28046e+07    2.4834e+07
          0.2   3.39173e+07   3.28771e+07   2.48712e+07
         0.21   3.39367e+07   3.28997e+07   2.49195e+07
         0.22   3.39508e+07   3.29158e+07   2.49474e+07
         0.23   3.36627e+07   3.26327e+07   2.47046e+07
         0.24   3.34277e+07   3.24063e+07   2.45435e+07
         0.25   3.30587e+07   3.20488e+07   2.42734e+07
         0.26   3.36167e+07   3.25895e+07   2.46772e+07
         0.27   3.30498e+07   3.20402e+07   2.42636e+07
         0.28   3.23896e+07   3.14007e+07   2.37834e+07
         0.29   3.16132e+07   3.06484e+07   2.32165e+07
          0.3   3.07604e+07   2.98219e+07   2.25926e+07
         0.31   2.97963e+07   2.88876e+07   2.18865e+07
         0.32   2.87555e+07    2.7879e+07   2.11258e+07
         0.33    2.7615e+07   2.67736e+07   2.02897e+07
         0.34   2.63867e+07   2.55831e+07     1.939e+07
         0.35   2.50665e+07   2.43036e+07   1.84236e+07
         0.36   2.36515e+07   2.29322e+07   1.73868e+07
         0.37   2.21706e+07   2.14963e+07   1.62997e+07
         0.38   2.06126e+07   1.99862e+07   1.51564e+07
         0.39   1.89679e+07    1.8392e+07   1.39502e+07
          0.4   1.72478e+07   1.67246e+07   1.26884e+07
         0.41   1.54514e+07    1.4983e+07   1.13698e+07
         0.42    1.3595e+07   1.31839e+07   1.00088e+07
         0.43   1.16629e+07   1.13105e+07   8.58956e+06
         0.44   9.67407e+06   9.38282e+06   7.13158e+06
         0.45   7.62293e+06   7.39428e+06   5.62565e+06
         0.46   5.51405e+06   5.34989e+06   4.07837e+06
         0.47   3.36046e+06   3.26181e+06    2.4949e+06
         0.48   1.16963e+06   1.13809e+06        887449
         0.49  -1.06948e+06  -1.03273e+06       -757267
          0.5  -3.34142e+06  -3.23524e+06   -2.4248e+06
         0.51  -5.65433e+06  -5.47784e+06  -4.12494e+06
         0.52   -7.9865e+06  -7.73901e+06  -5.84024e+06
         0.53   -1.0339e+07  -1.00198e+07  -7.56838e+06
         0.54  -1.27081e+07  -1.23168e+07   -9.3096e+06
         0.55  -1.50875e+07  -1.46239e+07  -1.10591e+07
         0.56  -1.74702e+07  -1.69336e+07  -1.28083e+07
         0.57  -1.98532e+07  -1.92445e+07  -1.45618e+07
         0.58  -2.22284e+07  -2.15474e+07  -1.63078e+07
         0.59  -2.45907e+07  -2.38379e+07  -1.80447e+07
          0.6  -2.69334e+07  -2.61094e+07  -1.97669e+07
         0.61  -2.92505e+07   -2.8356e+07  -2.14702e+07
         0.62  -3.15351e+07   -3.0571e+07  -2.31493e+07
         0.63  -3.37805e+07  -3.27481e+07  -2.47994e+07
         0.64  -3.59817e+07  -3.48822e+07  -2.64163e+07
         0.65  -3.81418e+07  -3.69765e+07  -2.80036e+07
         0.66  -4.02633e+07  -3.90335e+07   -2.9563e+07
         0.67  -4.23183e+07  -4.10244e+07  -3.10584e+07
         0.68  -4.43804e+07   -4.3026e+07  -3.25988e+07
         0.69  -4.64073e+07  -4.49936e+07  -3.41046e+07
          0.7  -4.83888e+07  -4.69169e+07  -3.55794e+07
         0.71  -5.03434e+07  -4.88149e+07  -3.70328e+07
         0.72  -5.22687e+07  -5.06805e+07  -3.84421e+07
         0.73  -5.41554e+07   -5.2515e+07  -3.98647e+07
         0.74  -5.60585e+07  -5.43652e+07  -4.13153e+07
         0.75  -5.82052e+07  -5.64567e+07  -4.29605e+07
         0.76   -5.9787e+07  -5.79898e+07  -4.41038e+07
         0.77  -5.94917e+07  -5.76866e+07  -4.37794e+07
         0.78  -5.97888e+07  -5.79673e+07  -4.39279e+07
         0.79  -6.07744e+07  -5.89252e+07  -4.46752e+07
          0.8  -6.16041e+07  -5.97264e+07  -4.52648e+07
         0.81  -6.23537e+07   -6.0455e+07  -4.58248e+07
         0.82  -6.29521e+07  -6.10358e+07  -4.62694e+07
         0.83  -6.34487e+07  -6.15173e+07  -4.66342e+07
         0.84  -6.38092e+07   -6.1867e+07  -4.69008e+07
         0.85  -6.40326e+07  -6.20832e+07  -4.70614e+07
         0.86  -6.41086e+07  -6.21566e+07   -4.7116e+07
         0.87  -6.40634e+07  -6.21142e+07  -4.70968e+07
         0.88  -6.38804e+07  -6.19355e+07   -4.6953e+07
         0.89  -6.35479e+07  -6.16121e+07  -4.66946e+07
          0.9  -6.30862e+07  -6.11654e+07  -4.63646e+07
         0.91  -6.24738e+07  -6.05716e+07   -4.5915e+07
         0.92  -6.17176e+07   -5.9838e+07  -4.53566e+07
         0.93  -6.08322e+07  -5.89794e+07   -4.4705e+07
         0.94  -5.98027e+07  -5.79808e+07  -4.39451e+07
         0.95  -5.86282e+07  -5.68415e+07  -4.30778e+07
         0.96  -5.72998e+07  -5.55531e+07  -4.20955e+07
         0.97  -5.58654e+07  -5.41627e+07  -4.10435e+07
         0.98  -5.43023e+07  -5.26464e+07  -3.98911e+07
         0.99  -5.26108e+07  -5.10056e+07  -3.86427e+07
            1  -5.07912e+07  -4.92409e+07  -3.73016e+07
         1.01  -4.88396e+07  -4.73481e+07  -3.58628e+07
         1.02  -4.67765e+07  -4.53474e+07  -3.43429e+07
         1.03  -4.46287e+07  -4.32635e+07  -3.27598e+07
         1.04  -4.22796e+07  -4.09871e+07   -3.1035e+07
         1.05  -3.98694e+07    -3.865e+07  -2.92631e+07
         1.06   -3.7359e+07  -3.62157e+07   -2.7416e+07
         1.07  -3.47619e+07  -3.36976e+07  -2.55063e+07
         1.08  -3.10866e+07   -3.0135e+07  -2.28135e+07
         1.09  -2.83942e+07  -2.75245e+07  -2.08341e+07
          1.1  -2.56177e+07  -2.48323e+07  -1.87919e+07
         1.11   -2.2775e+07  -2.20762e+07   -1.6703e+07
         1.12  -1.98635e+07  -1.92535e+07  -1.45635e+07
         1.13  -1.68906e+07  -1.63713e+07  -1.23795e+07
         1.14   -1.3862e+07  -1.34351e+07   -1.0155e+07
         1.15   -1.0762e+07  -1.04293e+07  -7.87617e+06
         1.16  -7.65293e+06  -7.41563e+06  -5.59575e+06
         1.17  -4.49002e+06   -4.3495e+06  -3.27456e+06
         1.18  -1.29096e+06  -1.24838e+06       -927326
         1.19   1.94118e+06   1.88477e+06   1.44397e+06
          1.2   5.19236e+06   5.03619e+06   3.82774e+06
         1.21   8.46808e+06    8.2111e+06    6.2264e+06
         1.22   1.17555e+07    1.1398e+07   8.64181e+06
         1.23   1.50425e+07   1.45841e+07   1.10501e+07
         1.24   1.83295e+07   1.77699e+07   1.34578e+07
         1.25   2.16118e+07   2.09508e+07   1.58614e+07
         1.26   2.48769e+07   2.41156e+07   1.82529e+07
         1.27   2.81258e+07   2.72642e+07   2.06313e+07
         1.28   3.13524e+07   3.03913e+07   2.29931e+07
         1.29   3.45525e+07   3.34927e+07   2.53354e+07
          1.3   3.77171e+07   3.65593e+07   2.76497e+07
         1.31   4.08451e+07   3.95904e+07   2.99367e+07
         1.32   4.39325e+07   4.25824e+07   3.21943e+07
         1.33    4.6972e+07   4.55276e+07   3.44159e+07
         1.34   4.99621e+07   4.84248e+07   3.66008e+07
         1.35   5.29016e+07   5.12732e+07   3.87479e+07
         1.36   5.57901e+07   5.40719e+07   4.08569e+07
         1.37    5.8611e+07   5.68051e+07   4.29162e+07
         1.38   6.13725e+07   5.94808e+07   4.49316e+07
         1.39   6.40753e+07   6.20993e+07   4.69053e+07
          1.4   6.67136e+07   6.46556e+07   4.88336e+07
         1.41    6.9226e+07   6.70877e+07   5.06503e+07
         1.42   7.17769e+07   6.95624e+07   5.25341e+07
         1.43   7.42229e+07   7.19338e+07   5.43352e+07
         1.44   7.65908e+07    7.4229e+07   5.60723e+07
         1.45   7.88983e+07   7.64689e+07   5.77865e+07
         1.46   8.11401e+07   7.86416e+07   5.94308e+07
         1.47   8.33143e+07   8.07508e+07   6.10351e+07
         1.48   8.54246e+07   8.27957e+07   6.25775e+07
         1.49   8.74635e+07   8.47752e+07   6.40982e+07
          1.5   8.93613e+07   8.66181e+07   6.55154e+07
         1.51   4.82741e+08   4.67802e+08   3.52976e+08
         1.52   9.79749e+07   9.50942e+07   7.28281e+07
         1.53   8.87417e+07   8.60348e+07   6.52145e+07
         1.54   8.70969e+07   8.44119e+07    6.3757e+07
         1.55   8.63317e+07   8.36723e+07   6.32289e+07
         1.56   8.55958e+07   8.29548e+07   6.26542e+07
         1.57   8.48833e+07   8.22662e+07    6.2138e+07
         1.58    8.4015e+07    8.1427e+07   6.15219e+07
         1.59   8.30583e+07   8.05001e+07   6.08273e+07
          1.6   8.20083e+07   7.94835e+07   6.00652e+07
         1.61   8.08481e+07   7.83595e+07   5.92175e+07
         1.62   7.95949e+07    7.7146e+07   5.83075e+07
         1.63   7.82476e+07    7.5841e+07   5.73276e+07
         1.64   7.67799e+07   7.44197e+07   5.62607e+07
         1.65   7.52259e+07   7.29149e+07   5.51332e+07
         1.66   7.35243e+07   7.12664e+07   5.38903e+07
         1.67   7.17884e+07   6.95853e+07   5.26299e+07
         1.68   6.98931e+07   6.77496e+07   5.12498e+07
         1.69   6.79441e+07   6.58613e+07   4.98282e+07
          1.7   6.58613e+07   6.38438e+07   4.83106e+07
         1.71   6.36993e+07   6.17498e+07    4.6738e+07
         1.72   6.14352e+07   5.95563e+07   4.50855e+07
         1.73   5.90705e+07   5.72659e+07   4.33641e+07
         1.74   5.66205e+07    5.4891e+07   4.15648e+07
         1.75   5.40666e+07   5.24171e+07   3.97057e+07
         1.76   5.14448e+07   4.98773e+07   3.77951e+07
         1.77   4.87221e+07   4.72384e+07   3.58002e+07
         1.78   4.59149e+07    4.4519e+07   3.37548e+07
         1.79   4.30108e+07   4.17044e+07   3.16263e+07
          1.8   3.99849e+07   3.87724e+07   2.94178e+07
         1.81   3.69852e+07    3.5865e+07   2.72173e+07
         1.82   3.38667e+07   3.28427e+07   2.49345e+07
         1.83   3.06748e+07   2.97492e+07   2.25967e+07
         1.84   2.73989e+07   2.65735e+07   2.01936e+07
         1.85   2.41107e+07   2.33874e+07   1.77876e+07
         1.86   2.06997e+07     2.008e+07   1.52797e+07
         1.87    1.7272e+07   1.67583e+07    1.2773e+07
         1.88    1.3792e+07   1.33848e+07   1.02229e+07
         1.89   1.02951e+07    9.9952e+06   7.65355e+06
          1.9   6.95472e+06   6.75743e+06   5.20575e+06
         1.91   3.27055e+06   3.18609e+06   2.50258e+06
         1.92       -444786       -415835       -225894
         1.93  -4.17613e+06  -4.03333e+06  -2.96657e+06
         1.94   -7.9244e+06  -7.66743e+06  -5.72037e+06
         1.95  -1.16817e+07  -1.13098e+07  -8.47626e+06
         1.96  -1.54503e+07  -1.49649e+07  -1.12574e+07
         1.97  -1.92172e+07  -1.86171e+07  -1.40251e+07
         1.98  -2.29696e+07  -2.22556e+07  -1.67855e+07
         1.99   -2.6712e+07  -2.58849e+07  -1.95424e+07
            2  -3.04285e+07  -2.94887e+07  -2.22767e+07
         2.01  -3.41173e+07  -3.30659e+07  -2.49936e+07
         2.02  -3.77698e+07   -3.6608e+07  -2.76839e+07
         2.03  -4.13789e+07  -4.01082e+07  -3.03433e+07
         2.04  -4.49375e+07  -4.35596e+07  -3.29668e+07
         2.05  -4.84394e+07  -4.69558e+07  -3.55471e+07
         2.06  -5.18774e+07  -5.02903e+07  -3.80827e+07
         2.07   -5.5245e+07  -5.35564e+07  -4.05647e+07
         2.08   -5.8532e+07  -5.67444e+07  -4.29888e+07
         2.09  -6.17348e+07  -5.98508e+07  -4.53504e+07
          2.1  -6.48471e+07  -6.28693e+07  -4.76446e+07
         2.11  -6.78719e+07   -6.5803e+07  -4.98744e+07
         2.12   -7.0766e+07  -6.86068e+07  -5.19752e+07
         2.13  -7.36398e+07  -7.13971e+07  -5.41321e+07
         2.14  -7.63918e+07  -7.40678e+07  -5.61707e+07
         2.15  -7.90331e+07  -7.66313e+07  -5.81317e+07
         2.16  -8.15867e+07    -7.911e+07  -6.00298e+07
         2.17  -8.40291e+07  -8.14795e+07  -6.18309e+07
         2.18  -8.63506e+07  -8.37338e+07  -6.35619e+07
         2.19  -8.85666e+07  -8.58846e+07  -6.52008e+07
          2.2  -9.06346e+07   -8.7891e+07  -6.67364e+07
         2.21  -9.25517e+07  -8.97525e+07  -6.81671e+07
         2.22  -9.43959e+07  -9.15453e+07  -6.95606e+07
         2.23  -9.60604e+07  -9.31628e+07  -7.08114e+07
         2.24  -9.75932e+07  -9.46521e+07  -7.19643e+07
         2.25  -9.90227e+07  -9.60421e+07  -7.30396e+07
         2.26    -1.004e+08  -9.73873e+07  -7.41407e+07
         2.27  -1.01416e+08  -9.83725e+07  -7.48818e+07
         2.28   -1.0253e+08  -9.94587e+07  -7.57551e+07
         2.29  -1.03812e+08  -1.00717e+08  -7.67958e+07
          2.3  -1.04053e+08  -1.00934e+08  -7.68229e+07
         2.31  -1.01852e+08  -9.87915e+07  -7.52181e+07
         2.32  -1.00797e+08  -9.77451e+07   -7.4206e+07
         2.33  -1.00695e+08  -9.76415e+07  -7.40838e+07
         2.34  -1.00267e+08  -9.72485e+07  -7.39408e+07
         2.35  -9.97489e+07  -9.67228e+07  -7.34091e+07
         2.36  -9.88257e+07  -9.58273e+07  -7.27173e+07
         2.37  -9.82361e+07  -9.52633e+07  -7.23391e+07
         2.38  -9.72313e+07  -9.42902e+07  -7.16082e+07
         2.39  -9.59915e+07   -9.3088e+07  -7.06872e+07
          2.4  -9.46953e+07  -9.18299e+07  -6.97328e+07
         2.41  -9.32123e+07  -9.03917e+07  -6.86393e+07
         2.42  -9.15679e+07  -8.87972e+07  -6.74335e+07
         2.43  -8.97947e+07  -8.70753e+07  -6.61102e+07
         2.44  -8.78662e+07  -8.52049e+07  -6.46871e+07
         2.45  -8.57908e+07  -8.31916e+07  -6.31538e+07
         2.46  -8.35424e+07  -8.10111e+07  -6.14961e+07
         2.47  -8.12082e+07  -7.87454e+07  -5.97638e+07
         2.48  -7.87236e+07  -7.63353e+07  -5.79303e+07
         2.49  -7.60965e+07  -7.37886e+07  -5.59972e+07
          2.5  -7.34176e+07  -7.11878e+07  -5.40096e+07
         2.51  -7.05674e+07   -6.8424e+07  -5.19085e+07
         2.52  -6.76211e+07  -6.55659e+07  -4.97326e+07
         2.53  -6.45899e+07  -6.26256e+07  -4.74943e+07
         2.54  -6.14735e+07  -5.96029e+07  -4.51949e+07
         2.55  -5.83341e+07  -5.65587e+07  -4.28921e+07
         2.56  -5.49614e+07  -5.32868e+07  -4.03915e+07
         2.57  -5.14408e+07  -4.98699e+07  -3.77815e+07
         2.58  -4.81759e+07  -4.67049e+07  -3.53821e+07
         2.59  -4.46919e+07  -4.33258e+07  -3.28144e+07
          2.6  -4.11553e+07  -3.98958e+07  -3.02108e+07
         2.61  -3.75643e+07  -3.64139e+07  -2.75534e+07
         2.62  -3.39333e+07  -3.28923e+07  -2.48878e+07
         2.63  -3.02619e+07  -2.93321e+07  -2.21878e+07
         2.64  -2.65834e+07  -2.57655e+07  -1.94825e+07
         2.65  -2.28765e+07  -2.21709e+07  -1.67524e+07
         2.66  -1.91495e+07  -1.85568e+07  -1.40094e+07
         2.67  -1.54553e+07   -1.4975e+07  -1.12962e+07
         2.68  -1.17375e+07  -1.13706e+07  -8.55913e+06
         2.69  -8.02802e+06  -7.77334e+06  -5.83154e+06
          2.7  -4.34238e+06  -4.20036e+06   -3.1252e+06
         2.71       -667988       -638136       -426847
         2.72   2.89888e+06   2.81923e+06   2.18915e+06
         2.73   6.41007e+06   6.22303e+06   4.76631e+06
         2.74   9.89402e+06   9.59999e+06    7.3198e+06
         2.75   1.33446e+07   1.29454e+07   9.85569e+06
         2.76   1.67044e+07   1.62014e+07   1.23162e+07
         2.77   2.01035e+07   1.94959e+07   1.48049e+07
         2.78   2.34155e+07   2.27061e+07   1.72338e+07
         2.79   2.66665e+07   2.58575e+07    1.9618e+07
          2.8   2.98628e+07   2.89553e+07   2.19578e+07
         2.81   3.29975e+07   3.19935e+07   2.42539e+07
         2.82   3.60612e+07   3.49623e+07   2.64939e+07
         2.83   3.90696e+07   3.78779e+07   2.86957e+07
         2.84   4.19862e+07   4.07034e+07   3.08263e+07
         2.85   4.48597e+07   4.34889e+07   3.29315e+07
         2.86   4.76337e+07   4.61768e+07   3.49605e+07
         2.87   5.03295e+07    4.8789e+07   3.69322e+07
         2.88   5.29535e+07   5.13327e+07   3.88569e+07
         2.89   5.55037e+07   5.38017e+07   4.07025e+07
          2.9    5.7945e+07   5.61679e+07   4.24928e+07
         2.91   6.03333e+07   5.84806e+07   4.42258e+07
         2.92   6.26015e+07   6.06784e+07   4.58845e+07
         2.93   6.48056e+07   6.28133e+07   4.74887e+07
         2.94   6.69147e+07   6.48566e+07   4.90269e+07
         2.95   6.89238e+07   6.68032e+07   5.04948e+07
         2.96   7.08687e+07   6.86875e+07   5.19139e+07
         2.97   7.27219e+07   7.04834e+07   5.32694e+07
         2.98   7.44757e+07   7.21828e+07   5.45531e+07
         2.99   7.61535e+07   7.38087e+07   5.57797e+07
            3   7.77416e+07   7.53481e+07   5.69434e+07
         3.01   7.92421e+07   7.68019e+07   5.80372e+07
         3.02   8.06517e+07   7.81678e+07   5.90718e+07
         3.03   8.19631e+07   7.94395e+07   6.00356e+07
         3.04   8.32123e+07   8.06517e+07   6.09634e+07
         3.05   8.42956e+07   8.17014e+07   6.17604e+07
         3.06   8.53162e+07   8.26942e+07    6.2523e+07
         3.07   8.60375e+07   8.33921e+07   6.30524e+07
         3.08   8.67538e+07   8.40875e+07   6.35815e+07
         3.09   8.73797e+07    8.4693e+07   6.40318e+07
          3.1   8.79823e+07   8.52799e+07   6.45009e+07
         3.11    8.8452e+07     8.574e+07   6.48685e+07
         3.12   8.88726e+07   8.61399e+07   6.51263e+07
         3.13   8.92296e+07   8.64955e+07   6.54693e+07
         3.14   8.95979e+07   8.68562e+07   6.57518e+07
         3.15   8.95098e+07   8.67762e+07   6.57522e+07
         3.16   8.99226e+07   8.71909e+07   6.61643e+07
         3.17   8.80041e+07   8.52934e+07   6.44461e+07
         3.18   8.66889e+07   8.40147e+07   6.34531e+07
         3.19   8.59885e+07    8.3332e+07   6.29181e+07
          3.2   8.53875e+07   8.27474e+07   6.24675e+07
         3.21   8.47405e+07   8.21228e+07   6.20021e+07
         3.22    8.3969e+07   8.13773e+07   6.14516e+07
         3.23   8.30418e+07   8.04789e+07   6.07789e+07
         3.24   8.20496e+07   7.95188e+07   6.00623e+07
         3.25   8.09367e+07   7.84418e+07   5.92586e+07
         3.26   7.97283e+07    7.7271e+07   5.83778e+07
         3.27   7.83786e+07   7.59645e+07   5.74017e+07
         3.28   7.69648e+07   7.45942e+07   5.63651e+07
         3.29   7.54198e+07   7.30986e+07   5.52478e+07
          3.3   7.37591e+07   7.14905e+07   5.40422e+07
         3.31   7.19961e+07   6.97825e+07    5.2755e+07
         3.32   7.01279e+07   6.79729e+07   5.13941e+07
         3.33   6.81696e+07   6.60761e+07   4.99679e+07
         3.34    6.6117e+07   6.40881e+07   4.84753e+07
         3.35   6.39426e+07   6.19815e+07   4.68873e+07
         3.36   6.16722e+07   5.97818e+07   4.52302e+07
         3.37   5.93164e+07   5.74998e+07   4.35135e+07
         3.38   5.68697e+07   5.51295e+07   4.17303e+07
         3.39   5.43288e+07   5.26681e+07   3.98778e+07
          3.4   5.16907e+07   5.01116e+07   3.79469e+07
         3.41   4.89674e+07   4.74734e+07   3.59622e+07
         3.42   4.61859e+07   4.47781e+07   3.39287e+07
         3.43   4.32645e+07   4.19471e+07   3.17911e+07
         3.44   4.02996e+07   3.90741e+07   2.96227e+07
         3.45   3.72744e+07   3.61425e+07   2.74101e+07
         3.46   3.41641e+07   3.31282e+07   2.51334e+07
         3.47   3.09407e+07   3.00035e+07   2.27685e+07
         3.48   2.77255e+07    2.6888e+07   2.04161e+07
         3.49   2.44232e+07   2.36872e+07   1.79969e+07
          3.5   2.10529e+07   2.04201e+07    1.5525e+07
         3.51   1.76329e+07   1.71053e+07   1.30182e+07
         3.52   1.41692e+07   1.37485e+07   1.04816e+07
         3.53   1.06544e+07    1.0341e+07   7.90221e+06
         3.54   7.33022e+06   7.11953e+06   5.46693e+06
         3.55    3.6491e+06   3.55103e+06   2.76574e+06
         3.56      -69697.2      -53987.3       36459.5
         3.57  -3.81034e+06  -3.68034e+06  -2.70946e+06
         3.58  -7.56373e+06  -7.31932e+06  -5.46769e+06
         3.59  -1.13278e+07   -1.0968e+07  -8.22767e+06
          3.6  -1.51051e+07  -1.46313e+07  -1.10124e+07
         3.61  -1.88641e+07  -1.82757e+07  -1.37738e+07
         3.62  -2.26195e+07  -2.19169e+07   -1.6535e+07
         3.63  -2.63526e+07  -2.55366e+07  -1.92805e+07
         3.64  -3.00674e+07  -2.91391e+07  -2.20166e+07
         3.65  -3.37474e+07  -3.27075e+07   -2.4725e+07
         3.66  -3.73923e+07   -3.6242e+07  -2.74072e+07
         3.67  -4.09912e+07   -3.9732e+07  -3.00581e+07
         3.68  -4.45416e+07  -4.31751e+07  -3.26732e+07
         3.69   -4.8033e+07   -4.6561e+07  -3.52447e+07
          3.7  -5.14583e+07  -4.98829e+07  -3.77691e+07
         3.71  -5.48135e+07  -5.31368e+07  -4.02414e+07
         3.72  -5.80824e+07   -5.6307e+07  -4.26492e+07
         3.73  -6.12727e+07  -5.94011e+07  -4.50015e+07
         3.74  -6.43699e+07  -6.24049e+07  -4.72845e+07
         3.75  -6.73436e+07  -6.52855e+07   -4.9441e+07
         3.76  -7.03059e+07  -6.81618e+07  -5.16599e+07
         3.77  -7.31419e+07   -7.0913e+07   -5.3757e+07
         3.78    -7.588e+07  -7.35697e+07  -5.57829e+07
         3.79  -7.85153e+07  -7.61267e+07  -5.77341e+07
          3.8   -8.1041e+07  -7.85778e+07  -5.96115e+07
         3.81  -8.34643e+07  -8.09317e+07  -6.14235e+07
         3.82  -8.57922e+07  -8.31907e+07  -6.31438e+07
         3.83  -8.79842e+07  -8.53183e+07  -6.47654e+07
         3.84  -9.00258e+07  -8.72985e+07  -6.62779e+07
         3.85  -9.19376e+07  -8.91556e+07  -6.77116e+07
         3.86  -9.37327e+07     -9.09e+07  -6.90597e+07
         3.87   -9.5434e+07  -9.25541e+07  -7.03474e+07
         3.88  -9.69451e+07  -9.40222e+07  -7.14827e+07
         3.89  -9.83787e+07  -9.54134e+07  -7.25367e+07
          3.9  -9.98385e+07  -9.68453e+07  -7.37618e+07
         3.91  -1.01207e+08  -9.81762e+07  -7.47721e+07
         3.92  -1.02906e+08  -9.98353e+07  -7.61158e+07
         3.93   -1.0152e+08  -9.84553e+07  -7.48517e+07
         3.94  -1.00392e+08  -9.73586e+07  -7.39404e+07
         3.95  -1.00318e+08  -9.72801e+07  -7.38786e+07
         3.96  -1.00159e+08  -9.71218e+07   -7.3702e+07
         3.97  -9.98077e+07  -9.67744e+07  -7.33991e+07
         3.98  -9.95349e+07  -9.65282e+07  -7.33498e+07
         3.99  -9.91012e+07  -9.60959e+07  -7.29534e+07
            4  -9.82965e+07  -9.53079e+07  -7.22587e+07
         4.01  -9.75899e+07  -9.46321e+07  -7.18341e+07
         4.02  -9.65497e+07   -9.3625e+07  -7.10784e+07
         4.03   -9.5422e+07  -9.25296e+07   -7.0235e+07
         4.04  -9.40978e+07  -9.12481e+07  -6.92781e+07
         4.05  -9.26042e+07  -8.97961e+07  -6.81599e+07
         4.06  -9.09526e+07  -8.81946e+07  -6.69462e+07
         4.07  -8.91849e+07  -8.64784e+07   -6.5628e+07
         4.08  -8.72825e+07  -8.46341e+07  -6.42261e+07
         4.09  -8.52098e+07  -8.26231e+07  -6.26922e+07
          4.1   -8.3028e+07  -8.05069e+07  -6.10823e+07
         4.11  -8.06648e+07   -7.8214e+07  -5.93366e+07
         4.12  -7.81971e+07  -7.58202e+07  -5.75137e+07
         4.13  -7.56931e+07  -7.33928e+07  -5.56641e+07
         4.14  -7.29291e+07  -7.07094e+07  -5.36255e+07
         4.15  -7.01731e+07  -6.80367e+07  -5.15875e+07
         4.16  -6.72908e+07  -6.52413e+07  -4.94604e+07
         4.17  -6.42858e+07  -6.23264e+07  -4.72425e+07
         4.18  -6.12066e+07    -5.934e+07  -4.49704e+07
         4.19  -5.80352e+07  -5.62639e+07  -4.26331e+07
          4.2  -5.47891e+07  -5.31157e+07  -4.02379e+07
         4.21  -5.14634e+07  -4.98902e+07  -3.77859e+07
         4.22  -4.80739e+07  -4.66035e+07  -3.52905e+07
         4.23  -4.45945e+07  -4.32283e+07  -3.27216e+07
         4.24  -4.10951e+07   -3.9835e+07  -3.01452e+07
         4.25  -3.75357e+07   -3.6383e+07  -2.75201e+07
         4.26  -3.39597e+07  -3.29158e+07  -2.48915e+07
         4.27  -3.03288e+07  -2.93945e+07  -2.22167e+07
         4.28  -2.66845e+07  -2.58611e+07  -1.95355e+07
         4.29  -2.30138e+07  -2.23018e+07  -1.68396e+07
          4.3  -1.93305e+07  -1.87312e+07  -1.41351e+07
         4.31  -1.56319e+07   -1.5145e+07  -1.14186e+07
         4.32  -1.19445e+07  -1.15699e+07  -8.70339e+06
         4.33  -8.25542e+06  -7.99308e+06  -5.99309e+06
         4.34  -4.57628e+06  -4.42646e+06   -3.2924e+06
         4.35       -913930       -876202       -605501
         4.36    2.6553e+06    2.5832e+06   2.01074e+06
         4.37   6.16226e+06   5.98279e+06   4.58419e+06
         4.38   9.63788e+06   9.35186e+06   7.13376e+06
         4.39   1.30743e+07   1.26826e+07    9.6523e+06
          4.4   1.64625e+07   1.59667e+07   1.21347e+07
         4.41   1.98146e+07   1.92158e+07   1.45943e+07
         4.42   2.31164e+07   2.24157e+07   1.70106e+07
         4.43   2.63448e+07   2.55441e+07   1.93723e+07
         4.44   2.95183e+07   2.86195e+07   2.16917e+07
         4.45   3.26767e+07   3.16809e+07   2.40095e+07
         4.46   3.57417e+07    3.4651e+07   2.62507e+07
         4.47   3.87437e+07   3.75596e+07   2.84423e+07
         4.48   4.16857e+07   4.04102e+07   3.05849e+07
         4.49   4.45177e+07    4.3154e+07   3.26646e+07
          4.5   4.73262e+07   4.58754e+07   3.47116e+07
         4.51    5.0038e+07   4.85032e+07   3.66943e+07
         4.52   5.26674e+07   5.10506e+07   3.86124e+07
         4.53   5.52188e+07   5.35232e+07   4.04768e+07
         4.54   5.76669e+07   5.58948e+07   4.22646e+07
         4.55   6.00446e+07   5.81971e+07   4.39911e+07
         4.56   6.23283e+07   6.04083e+07    4.5649e+07
         4.57   6.45344e+07   6.25462e+07   4.72616e+07
         4.58   6.66464e+07   6.45922e+07   4.88018e+07
         4.59   6.86796e+07   6.65627e+07   5.02907e+07
          4.6   7.06011e+07    6.8424e+07   5.16929e+07
         4.61   7.24756e+07   7.02387e+07   5.30461e+07
         4.62   7.42298e+07   7.19393e+07   5.43389e+07
         4.63   7.59134e+07   7.35712e+07   5.55718e+07
         4.64   7.74975e+07   7.51036e+07   5.67086e+07
         4.65   7.89942e+07   7.65554e+07   5.78166e+07
         4.66   8.03817e+07   7.79004e+07   5.88305e+07
         4.67   8.16849e+07   7.91628e+07   5.97845e+07
         4.68   8.28916e+07   8.03344e+07   6.06919e+07
         4.69   8.38609e+07   8.12707e+07   6.13643e+07
          4.7   8.49142e+07   8.22976e+07   6.21862e+07
         4.71   8.56406e+07   8.29974e+07   6.26909e+07
         4.72   8.65069e+07   8.38408e+07   6.33554e+07
         4.73   8.71145e+07   8.44289e+07   6.37866e+07
         4.74   8.76519e+07   8.49496e+07   6.41881e+07
         4.75   8.79864e+07   8.52724e+07   6.43907e+07
         4.76   8.83774e+07   8.56538e+07   6.47518e+07
         4.77   8.86293e+07   8.59053e+07   6.49891e+07
         4.78   8.87412e+07   8.60144e+07   6.50329e+07
         4.79   8.87486e+07    8.6019e+07   6.50413e+07
          4.8   8.91439e+07   8.64088e+07   6.53727e+07
         4.81   8.87308e+07   8.60284e+07   6.52368e+07
         4.82   8.79881e+07   8.52907e+07   6.45564e+07
         4.83   8.65609e+07   8.38884e+07   6.33405e+07
         4.84   8.51937e+07   8.25549e+07   6.22879e+07
         4.85   8.44709e+07   8.18561e+07   6.17787e+07
         4.86   8.36537e+07   8.10604e+07   6.11511e+07
         4.87   8.27951e+07    8.0229e+07   6.05175e+07
         4.88   8.17825e+07   7.92512e+07   5.98087e+07
         4.89   8.07175e+07   7.82214e+07   5.90373e+07
          4.9   7.94581e+07   7.70014e+07    5.8128e+07
         4.91   7.81482e+07   7.57329e+07   5.71763e+07
         4.92   7.66995e+07   7.43292e+07   5.61165e+07
         4.93   7.51956e+07   7.28741e+07    5.5035e+07
         4.94   7.35377e+07   7.12676e+07   5.38213e+07
         4.95   7.17745e+07   6.95596e+07   5.25363e+07
         4.96    6.9958e+07   6.78015e+07   5.12245e+07
         4.97   6.79719e+07   6.58772e+07   4.97733e+07
         4.98   6.59184e+07   6.38882e+07   4.82768e+07
         4.99   6.37695e+07   6.18073e+07   4.67153e+07
            5   6.14815e+07   5.95903e+07   4.50444e+07
         5.01   5.91078e+07   5.72909e+07   4.33199e+07
         5.02   5.66692e+07   5.49282e+07   4.15339e+07
         5.03   5.41371e+07   5.24759e+07   3.96899e+07
         5.04   5.14815e+07    4.9903e+07   3.77569e+07
         5.05   4.87695e+07   4.72749e+07   3.57695e+07
         5.06   4.59704e+07   4.45634e+07   3.37294e+07
         5.07   4.30818e+07   4.17645e+07   3.16185e+07
         5.08   4.01089e+07   3.88837e+07   2.94437e+07
         5.09   3.70512e+07   3.59207e+07   2.72068e+07
          5.1   3.39594e+07   3.29247e+07   2.49471e+07
         5.11   3.07697e+07   2.98337e+07   2.26122e+07
         5.12   2.75253e+07   2.66897e+07   2.02399e+07
         5.13   2.42167e+07   2.34831e+07    1.7817e+07
         5.14   2.08543e+07   2.02243e+07   1.53547e+07
         5.15   1.74572e+07    1.6932e+07     1.287e+07
         5.16   1.40104e+07   1.35913e+07   1.03432e+07
         5.17   1.05265e+07   1.02143e+07   7.78705e+06
         5.18   7.21736e+06   7.00709e+06   5.36216e+06
         5.19   3.55854e+06   3.46107e+06    2.6832e+06
          5.2       -135428       -119616        -26446
         5.21  -3.84884e+06  -3.71925e+06  -2.75016e+06
         5.22   -7.5715e+06  -7.32756e+06   -5.4798e+06
         5.23  -1.13195e+07  -1.09612e+07  -8.23104e+06
         5.24   -1.5058e+07  -1.45861e+07  -1.09821e+07
         5.25  -1.87946e+07  -1.82085e+07  -1.37256e+07