# Probe 0 (0 0 0)
#       Probe             0
#        Time
         0.05       7805.62
          0.1       7809.33
         0.15       7823.55
          0.2       7851.28
         0.25       7865.21
          0.3       -1e+300
         0.35       -1e+300
          0.4       -1e+300
         0.45       -1e+300
          0.5       -1e+300
         0.55       -1e+300
          0.6       -1e+300
         0.65       -1e+300
          0.7       -1e+300
         0.75       -1e+300
          0.8       -1e+300
         0.85       -1e+300
          0.9       -1e+300
         0.95       -1e+300
            1       -1e+300
         1.05       -1e+300
          1.1       -1e+300
         1.15       7529.32
          1.2       7515.93
         1.25       7569.39
          1.3       7577.99
         1.35       7613.85
          1.4        7658.5
         1.45       7732.47
          1.5          7774
         1.55       7824.64
          1.6       7858.87
         1.65       7896.16
          1.7       7927.13
         1.75       7990.71
          1.8       7960.89
         1.85       7985.61
          1.9       7967.94
         1.95       -1e+300
            2       -1e+300
         2.05       -1e+300
          2.1       -1e+300
         2.15       -1e+300
          2.2       -1e+300
         2.25       -1e+300
          2.3       -1e+300
         2.35       -1e+300
          2.4       -1e+300
         2.45       -1e+300
          2.5       -1e+300
         2.55       -1e+300
          2.6       -1e+300
         2.65       -1e+300
          2.7       -1e+300
         2.75       7510.94
          2.8       7526.53
         2.85       7515.73
          2.9       7551.11
         2.95       7591.94
            3       7644.18
         3.05       7716.66
          3.1       7751.39
         3.15       7793.67
          3.2       7847.28
         3.25       7901.92
          3.3        7928.2
         3.35       7958.39
          3.4       7986.31
         3.45       7987.38
          3.5       7989.79
         3.55       -1e+300
          3.6       -1e+300
         3.65       -1e+300
          3.7       -1e+300
         3.75       -1e+300
          3.8       -1e+300
         3.85       -1e+300
          3.9       -1e+300
         3.95       -1e+300
            4       -1e+300
         4.05       -1e+300
          4.1       -1e+300
         4.15       -1e+300
          4.2       -1e+300
         4.25       -1e+300
          4.3       -1e+300
         4.35       -1e+300
          4.4       7495.96
         4.45       7520.29
          4.5       7539.16
         4.55       7578.35
          4.6       7614.61
         4.65       7677.01
          4.7       7718.27
         4.75       7775.31
          4.8       7819.39
         4.85       7885.27
          4.9       7914.18
         4.95       7950.98
            5       7971.86
         5.05       7999.99
          5.1       7998.43
         5.15       7984.84
          5.2       -1e+300
         5.25       -1e+300
          5.3       -1e+300
         5.35       -1e+300
          5.4       -1e+300
         5.45       -1e+300
          5.5       -1e+300
         5.55       -1e+300
          5.6       -1e+300
         5.65       -1e+300
          5.7       -1e+300
         5.75       -1e+300
          5.8       -1e+300
         5.85       -1e+300
          5.9       -1e+300
         5.95       -1e+300
            6       7493.69
         6.05        7501.3
          6.1       7526.83
         6.15       7561.98
          6.2       7592.84
         6.25       7649.66
          6.3       7689.36
         6.35       7753.86
          6.4       7790.03
         6.45       7855.48
          6.5       7890.11
         6.55       7936.73
          6.6       7959.18
         6.65       7992.11
          6.7       7996.83
         6.75       7991.71
          6.8       -1e+300
         6.85       -1e+300
          6.9       -1e+300
         6.95       -1e+300
            7       -1e+300
         7.05       -1e+300
          7.1       -1e+300
         7.15       -1e+300
          7.2       -1e+300
         7.25       -1e+300
          7.3       -1e+300
         7.35       -1e+300
          7.4       -1e+300
         7.45       -1e+300
          7.5       -1e+300
         7.55       -1e+300
          7.6       -1e+300
         7.65       7498.63
          7.7       7516.31
         7.75          7539
          7.8       7576.92
         7.85       7621.01
          7.9       7669.16
         7.95       7720.81
            8       7773.11
         8.05       7825.02
          8.1       7872.43
         8.15       7913.79
          8.2       7947.13
         8.25        7971.1
          8.3       7994.18
         8.35       7994.31
          8.4       7985.49
         8.45       -1e+300
          8.5       -1e+300
         8.55       -1e+300
          8.6       -1e+300
         8.65       -1e+300
          8.7       -1e+300
         8.75       -1e+300
          8.8       -1e+300
         8.85       -1e+300
          8.9       -1e+300
         8.95       -1e+300
            9       -1e+300
         9.05       -1e+300
          9.1       -1e+300
         9.15       -1e+300
          9.2       -1e+300
         9.25       7494.67
          9.3       7507.46
         9.35       7529.62
          9.4       7555.44
         9.45       7597.82
          9.5        7644.5
         9.55       7694.45
          9.6       7746.51
         9.65       7794.37
          9.7       7848.33
         9.75       7893.02
          9.8       7930.51
         9.85       7959.36
          9.9       7988.21
         9.95       7994.72
           10       7990.75
        10.05       -1e+300
         10.1       -1e+300
        10.15       -1e+300
         10.2       -1e+300
        10.25       -1e+300
         10.3       -1e+300
        10.35       -1e+300
         10.4       -1e+300
        10.45       -1e+300
         10.5       -1e+300
        10.55       -1e+300
         10.6       -1e+300
        10.65       -1e+300
         10.7       -1e+300
        10.75       -1e+300
         10.8       -1e+300
        10.85       -1e+300
         10.9       7501.47
        10.95       7518.58
           11       7540.79
        11.05       7574.33
         11.1       7620.68
        11.15       7669.74
         11.2       7720.49
        11.25       7772.47
         11.3       7823.67
        11.35       7871.12
         11.4       7912.28
        11.45       7945.55
         11.5       7969.52
        11.55       7992.28
         11.6       7993.17
        11.65       7984.66
         11.7       -1e+300
        11.75       -1e+300
         11.8       -1e+300
        11.85       -1e+300
         11.9       -1e+300
        11.95       -1e+300
           12       -1e+300
        12.05       -1e+300
         12.1       -1e+300
        12.15       -1e+300
         12.2       -1e+300
        12.25       -1e+300
         12.3       -1e+300
        12.35       -1e+300
         12.4       -1e+300
        12.45       -1e+300
         12.5       7495.87
        12.55       7508.41
         12.6       7530.26
        12.65        7555.7
         12.7       7593.06
        12.75       7642.66
         12.8       7693.45
        12.85       7744.49
         12.9       7792.39
        12.95        7845.6
           13       7890.27
        13.05       7927.35
         13.1       7956.13
        13.15       7975.23
         13.2       7991.82
        13.25        7988.1
         13.3       -1e+300
        13.35       -1e+300
         13.4       -1e+300
        13.45       -1e+300
         13.5       -1e+300
        13.55       -1e+300
         13.6       -1e+300
        13.65       -1e+300
         13.7       -1e+300
        13.75       -1e+300
         13.8       -1e+300
        13.85       -1e+300
         13.9       -1e+300
        13.95       -1e+300
           14       -1e+300
        14.05       -1e+300
         14.1       -1e+300
        14.15       7506.95
         14.2       7524.36
        14.25       7546.85
         14.3       7580.37
        14.35       7621.48
         14.4       7674.35
        14.45       7726.44
         14.5       7777.81
        14.55       7828.35
         14.6       7875.94
        14.65       7916.84
         14.7       7949.77
        14.75       7973.41
         14.8       7995.81
        14.85       7996.63
         14.9       7987.35
        14.95       -1e+300
           15       -1e+300
        15.05       -1e+300
         15.1       -1e+300
        15.15       -1e+300
         15.2       -1e+300
        15.25       -1e+300
         15.3       -1e+300
        15.35       -1e+300
         15.4       -1e+300
        15.45       -1e+300
         15.5       -1e+300
        15.55       -1e+300
         15.6       -1e+300
        15.65       -1e+300
         15.7       -1e+300
        15.75       7486.84
         15.8       7498.67
        15.85       7519.99
         15.9       7545.03
        15.95       7581.96
           16       7631.62
        16.05       7682.46
         16.1       7734.07
        16.15       7782.86
         16.2       7836.63
        16.25       7882.27
         16.3       7920.97
        16.35       7951.28
         16.4       7971.99
        16.45       7990.29
         16.5       7988.21
        16.55       -1e+300
         16.6       -1e+300
        16.65       -1e+300
         16.7       -1e+300
        16.75       -1e+300
         16.8       -1e+300
        16.85       -1e+300
         16.9       -1e+300
        16.95       -1e+300
           17       -1e+300
        17.05       -1e+300
         17.1       -1e+300
        17.15       -1e+300
         17.2       -1e+300
        17.25       -1e+300
         17.3       -1e+300
        17.35       -1e+300
         17.4       7514.47
        17.45       7529.73
         17.5       7549.33
        17.55       7579.94
         17.6          7618
        17.65       7661.47
         17.7       7715.75
        17.75        7765.4
         17.8       7812.96
        17.85       7857.91
         17.9       7896.73
        17.95       7928.36
           18        7951.1
        18.05       7973.26
         18.1       7974.33
        18.15       7965.94
         18.2       -1e+300
        18.25       -1e+300
         18.3       -1e+300
        18.35       -1e+300
         18.4       -1e+300
        18.45       -1e+300
         18.5       -1e+300
        18.55       -1e+300
         18.6       -1e+300
        18.65       -1e+300
         18.7       -1e+300
        18.75       -1e+300
         18.8       -1e+300
        18.85       -1e+300
         18.9       -1e+300
        18.95       -1e+300
           19       7512.89
        19.05       7527.57
         19.1       7551.24
        19.15       7577.91
         19.2       7615.62
        19.25       7659.24
         19.3        7706.4
        19.35       7763.27
         19.4       7809.98
        19.45       7859.36
         19.5       7900.38
        19.55       7933.98
         19.6       7958.96
        19.65       7974.34
         19.7       7987.57
        19.75       7980.77
         19.8       -1e+300
        19.85       -1e+300
         19.9       -1e+300
        19.95       -1e+300
           20       -1e+300
        20.05       -1e+300
         20.1       -1e+300
        20.15       -1e+300
         20.2       -1e+300
        20.25       -1e+300
         20.3       -1e+300
        20.35       -1e+300
         20.4       -1e+300
        20.45       -1e+300
         20.5       -1e+300
        20.55       -1e+300
         20.6       -1e+300
        20.65        7501.1
         20.7       7523.36
        20.75       7550.72
         20.8       7588.86
        20.85       7634.08
         20.9       7684.05
        20.95       7736.29
           21       7797.25
        21.05       7847.39
         21.1       7895.92
        21.15       7935.39
         21.2       7966.07
        21.25       7986.85
         21.3       8006.07
        21.35       8003.52
         21.4       7991.08
        21.45       -1e+300
         21.5       -1e+300
        21.55       -1e+300
         21.6       -1e+300
        21.65       -1e+300
         21.7       -1e+300
        21.75       -1e+300
         21.8       -1e+300
        21.85       -1e+300
         21.9       -1e+300
        21.95       -1e+300
           22       -1e+300
        22.05       -1e+300
         22.1       -1e+300
        22.15       -1e+300
         22.2       -1e+300
        22.25       7475.37
         22.3       7493.22
        22.35       7521.81
         22.4       7554.63
        22.45        7599.4
         22.5       7650.68
        22.55       7705.78
         22.6       7762.25
        22.65        7824.2
         22.7       7880.27
        22.75       7926.38
         22.8       7964.01
        22.85       7991.43
         22.9        8007.9
        22.95       8021.13
           23       8013.56
        23.05       -1e+300
         23.1       -1e+300
        23.15       -1e+300
         23.2       -1e+300
        23.25       -1e+300
         23.3       -1e+300
        23.35       -1e+300
         23.4       -1e+300
        23.45       -1e+300
         23.5       -1e+300
        23.55       -1e+300
         23.6       -1e+300
        23.65       -1e+300
         23.7       -1e+300
        23.75       -1e+300
         23.8       -1e+300
        23.85       -1e+300
         23.9       7466.35
        23.95       7489.45
           24       7523.93
        24.05       7561.68
         24.1       7612.03
        24.15       7668.32
         24.2       7727.64
        24.25       7786.58
         24.3       7842.79
        24.35       7905.71
         24.4        7950.9
        24.45       7984.88
         24.5       8007.97
        24.55       8028.27
         24.6       8026.07
        24.65       8013.43
         24.7       -1e+300
        24.75       -1e+300
         24.8       -1e+300
        24.85       -1e+300
         24.9       -1e+300
        24.95       -1e+300
           25       -1e+300
        25.05       -1e+300
         25.1       -1e+300
        25.15       -1e+300
         25.2       -1e+300
        25.25       -1e+300
         25.3       -1e+300
        25.35       -1e+300
         25.4       -1e+300
        25.45       -1e+300
         25.5       7444.01
        25.55       7462.02
         25.6        7492.7
        25.65       7528.79
         25.7       7577.76
        25.75       7634.35
         25.8       7695.32
        25.85       7757.59
         25.9       7815.26
        25.95       7886.32
           26       7936.67
        26.05       7977.17
         26.1       8006.31
        26.15       8023.37
         26.2        8036.6
        26.25       8028.68
         26.3       -1e+300
        26.35       -1e+300
         26.4       -1e+300
        26.45       -1e+300
         26.5       -1e+300
        26.55       -1e+300
         26.6       -1e+300
        26.65       -1e+300
         26.7       -1e+300
        26.75       -1e+300
         26.8       -1e+300
        26.85       -1e+300
         26.9       -1e+300
        26.95       -1e+300
           27       -1e+300
        27.05       -1e+300
         27.1       -1e+300
        27.15       7443.65
         27.2       7469.62
        27.25       7501.59
         27.3       7541.59
        27.35       7594.47
         27.4       7666.57
        27.45       7730.15
         27.5       7793.38
        27.55       7850.95
         27.6       7917.48
        27.65       7963.74
         27.7       7997.67
        27.75       8019.93
         27.8       8039.04
        27.85        8035.7
         27.9       8021.91
        27.95       -1e+300
           28       -1e+300
        28.05       -1e+300
         28.1       -1e+300
        28.15       -1e+300
         28.2       -1e+300
        28.25       -1e+300
         28.3       -1e+300
        28.35       -1e+300
         28.4       -1e+300
        28.45       -1e+300
         28.5       -1e+300
        28.55       -1e+300
         28.6       -1e+300
        28.65       -1e+300
         28.7       -1e+300
        28.75       7433.24
         28.8       7454.65
        28.85       7484.39
         28.9       7522.21
        28.95       7572.39
           29       7629.86
        29.05        7705.2
         29.1       7769.21
        29.15       7827.82
         29.2        7888.4
        29.25       7946.97
         29.3       7987.03
        29.35       8014.12
         29.4       8029.57
        29.45       8041.63
         29.5       8032.33
        29.55       -1e+300
         29.6       -1e+300
        29.65       -1e+300
         29.7       -1e+300
        29.75       -1e+300
         29.8       -1e+300
        29.85       -1e+300
         29.9       -1e+300
        29.95       -1e+300
           30       -1e+300
