# Probe 0 (0 0 0)
#       Probe             0
#        Time
            0             (0 0 0)
         0.05             (-0.0120322 9.65854e-21 -0.000207879)
          0.1             (-0.00870314 9.61816e-21 -6.74739e-05)
         0.15             (-0.00328584 9.58678e-21 1.37598e-05)
          0.2             (0.00401191 9.55008e-21 0.000149908)
         0.25             (0.0105312 9.47936e-21 0.000284932)
          0.3             (-1e+300 -1e+300 -1e+300)
         0.35             (-1e+300 -1e+300 -1e+300)
          0.4             (-1e+300 -1e+300 -1e+300)
         0.45             (-1e+300 -1e+300 -1e+300)
          0.5             (-1e+300 -1e+300 -1e+300)
         0.55             (-1e+300 -1e+300 -1e+300)
          0.6             (-1e+300 -1e+300 -1e+300)
         0.65             (-1e+300 -1e+300 -1e+300)
          0.7             (-1e+300 -1e+300 -1e+300)
         0.75             (-1e+300 -1e+300 -1e+300)
          0.8             (-1e+300 -1e+300 -1e+300)
         0.85             (-1e+300 -1e+300 -1e+300)
          0.9             (-1e+300 -1e+300 -1e+300)
         0.95             (-1e+300 -1e+300 -1e+300)
            1             (-1e+300 -1e+300 -1e+300)
         1.05             (-1e+300 -1e+300 -1e+300)
          1.1             (-1e+300 -1e+300 -1e+300)
         1.15             (-0.0759192 -1.22234e-18 -0.00118601)
          1.2             (-0.0805519 -1.13735e-18 -0.00102046)
         1.25             (-0.0820843 -1.17592e-18 -0.000778747)
          1.3             (-0.127752 -4.55692e-19 -0.000480159)
         1.35             (-0.116057 -4.56582e-19 -0.000136292)
          1.4             (-0.098899 -4.67765e-19 0.000236834)
         1.45             (-0.0765504 -4.73408e-19 0.000619749)
          1.5             (-0.047843 -3.76133e-19 0.0010131)
         1.55             (0.019645 -1.16768e-19 0.00173183)
          1.6             (0.0498156 -3.25452e-20 0.00197372)
         1.65             (0.0785749 -2.20157e-19 0.00216558)
          1.7             (0.104764 -3.55139e-19 0.00227214)
         1.75             (0.12727 -3.41154e-19 0.00226812)
          1.8             (0.0834099 1.06432e-18 0.00205007)
         1.85             (0.0929837 1.01584e-18 0.0018629)
          1.9             (0.0992991 1.04963e-18 0.00161311)
         1.95             (-1e+300 -1e+300 -1e+300)
            2             (-1e+300 -1e+300 -1e+300)
         2.05             (-1e+300 -1e+300 -1e+300)
          2.1             (-1e+300 -1e+300 -1e+300)
         2.15             (-1e+300 -1e+300 -1e+300)
          2.2             (-1e+300 -1e+300 -1e+300)
         2.25             (-1e+300 -1e+300 -1e+300)
          2.3             (-1e+300 -1e+300 -1e+300)
         2.35             (-1e+300 -1e+300 -1e+300)
          2.4             (-1e+300 -1e+300 -1e+300)
         2.45             (-1e+300 -1e+300 -1e+300)
          2.5             (-1e+300 -1e+300 -1e+300)
         2.55             (-1e+300 -1e+300 -1e+300)
          2.6             (-1e+300 -1e+300 -1e+300)
         2.65             (-1e+300 -1e+300 -1e+300)
          2.7             (-1e+300 -1e+300 -1e+300)
         2.75             (-0.100525 8.8822e-19 -0.000966263)
          2.8             (-0.100561 8.67302e-19 -0.000592349)
         2.85             (-0.0971246 8.56528e-19 -0.00019713)
          2.9             (-0.140909 1.83099e-20 0.000290832)
         2.95             (-0.121574 -1.68453e-20 0.000695083)
            3             (-0.0980347 -1.475e-20 0.00106874)
         3.05             (-0.069616 -1.09468e-19 0.00141941)
          3.1             (-0.0356613 3.12294e-19 0.00171204)
         3.15             (0.00360956 -2.93628e-20 0.00193885)
          3.2             (0.0340638 -2.95303e-20 0.00213311)
         3.25             (0.0639963 5.23727e-19 0.00223616)
          3.3             (0.0918983 7.08481e-19 0.00228236)
         3.35             (0.116598 7.90426e-19 0.00225901)
          3.4             (0.0774811 1.36214e-18 0.00202493)
         3.45             (0.0885377 1.27939e-18 0.00184415)
          3.5             (0.0964999 1.2788e-18 0.00161095)
         3.55             (-1e+300 -1e+300 -1e+300)
          3.6             (-1e+300 -1e+300 -1e+300)
         3.65             (-1e+300 -1e+300 -1e+300)
          3.7             (-1e+300 -1e+300 -1e+300)
         3.75             (-1e+300 -1e+300 -1e+300)
          3.8             (-1e+300 -1e+300 -1e+300)
         3.85             (-1e+300 -1e+300 -1e+300)
          3.9             (-1e+300 -1e+300 -1e+300)
         3.95             (-1e+300 -1e+300 -1e+300)
            4             (-1e+300 -1e+300 -1e+300)
         4.05             (-1e+300 -1e+300 -1e+300)
          4.1             (-1e+300 -1e+300 -1e+300)
         4.15             (-1e+300 -1e+300 -1e+300)
          4.2             (-1e+300 -1e+300 -1e+300)
         4.25             (-1e+300 -1e+300 -1e+300)
          4.3             (-1e+300 -1e+300 -1e+300)
         4.35             (-1e+300 -1e+300 -1e+300)
          4.4             (-0.101089 1.97922e-18 -0.000773949)
         4.45             (-0.0993978 1.94789e-18 -0.000387936)
          4.5             (-0.148813 8.9698e-19 9.32165e-05)
         4.55             (-0.131811 8.90436e-19 0.000493352)
          4.6             (-0.110439 8.95471e-19 0.000888388)
         4.65             (-0.0846148 8.69219e-19 0.00124555)
          4.7             (-0.0535367 6.02445e-19 0.00157494)
         4.75             (-0.0165765 6.24335e-19 0.00183347)
          4.8             (0.0185627 -3.43809e-19 0.00207453)
         4.85             (0.0490162 -3.20659e-19 0.00220084)
          4.9             (0.0780755 -1.23297e-19 0.00228485)
         4.95             (0.104536 7.02427e-20 0.00228229)
            5             (0.127276 3.11407e-20 0.00223004)
         5.05             (0.0832554 -7.57279e-19 0.00195789)
          5.1             (0.0928343 -7.51038e-19 0.00175566)
         5.15             (0.0991633 -7.88959e-19 0.00149014)
          5.2             (-1e+300 -1e+300 -1e+300)
         5.25             (-1e+300 -1e+300 -1e+300)
          5.3             (-1e+300 -1e+300 -1e+300)
         5.35             (-1e+300 -1e+300 -1e+300)
          5.4             (-1e+300 -1e+300 -1e+300)
         5.45             (-1e+300 -1e+300 -1e+300)
          5.5             (-1e+300 -1e+300 -1e+300)
         5.55             (-1e+300 -1e+300 -1e+300)
          5.6             (-1e+300 -1e+300 -1e+300)
         5.65             (-1e+300 -1e+300 -1e+300)
          5.7             (-1e+300 -1e+300 -1e+300)
         5.75             (-1e+300 -1e+300 -1e+300)
          5.8             (-1e+300 -1e+300 -1e+300)
         5.85             (-1e+300 -1e+300 -1e+300)
          5.9             (-1e+300 -1e+300 -1e+300)
         5.95             (-1e+300 -1e+300 -1e+300)
            6             (-0.101509 -3.29459e-19 -0.000949412)
         6.05             (-0.101695 -3.33591e-19 -0.000578573)
          6.1             (-0.0981968 -3.4651e-19 -0.000186838)
         6.15             (-0.141057 -8.17866e-19 0.000285068)
          6.2             (-0.121835 -8.02265e-19 0.000685247)
         6.25             (-0.0983299 -8.23921e-19 0.0010631)
          6.3             (-0.0698964 -8.39037e-19 0.00141073)
         6.35             (-0.0359166 -1.94926e-18 0.00170577)
          6.4             (0.00335234 -1.37179e-18 0.00194234)
         6.45             (0.0337916 -9.93839e-19 0.00213669)
          6.5             (0.0637408 -7.87165e-19 0.00224633)
         6.55             (0.0916827 -7.65573e-19 0.0022787)
          6.6             (0.116437 -8.33291e-19 0.00225664)
         6.65             (0.0770635 6.19103e-19 0.00203666)
          6.7             (0.0881657 3.32797e-19 0.00187132)
         6.75             (0.0961957 3.32822e-19 0.00163559)
          6.8             (-1e+300 -1e+300 -1e+300)
         6.85             (-1e+300 -1e+300 -1e+300)
          6.9             (-1e+300 -1e+300 -1e+300)
         6.95             (-1e+300 -1e+300 -1e+300)
            7             (-1e+300 -1e+300 -1e+300)
         7.05             (-1e+300 -1e+300 -1e+300)
          7.1             (-1e+300 -1e+300 -1e+300)
         7.15             (-1e+300 -1e+300 -1e+300)
          7.2             (-1e+300 -1e+300 -1e+300)
         7.25             (-1e+300 -1e+300 -1e+300)
          7.3             (-1e+300 -1e+300 -1e+300)
         7.35             (-1e+300 -1e+300 -1e+300)
          7.4             (-1e+300 -1e+300 -1e+300)
         7.45             (-1e+300 -1e+300 -1e+300)
          7.5             (-1e+300 -1e+300 -1e+300)
         7.55             (-1e+300 -1e+300 -1e+300)
          7.6             (-1e+300 -1e+300 -1e+300)
         7.65             (-0.102631 3.25186e-18 -0.000776324)
          7.7             (-0.100941 3.27027e-18 -0.000395418)
         7.75             (-0.148691 9.73166e-19 7.43638e-05)
          7.8             (-0.131971 9.82292e-19 0.000470021)
         7.85             (-0.110702 9.60803e-19 0.000860503)
          7.9             (-0.084843 1.06841e-18 0.0012222)
         7.95             (-0.0536453 9.81692e-19 0.0015475)
            8             (-0.0166621 1.26047e-18 0.00181806)
         8.05             (0.0184178 8.85772e-19 0.00204219)
          8.1             (0.0488395 4.9652e-19 0.00218573)
         8.15             (0.0779297 4.12212e-19 0.00226779)
          8.2             (0.104427 6.45153e-19 0.00228692)
         8.25             (0.127232 5.07164e-19 0.0022363)
          8.3             (0.082839 1.94143e-18 0.00196416)
         8.35             (0.0924864 1.70909e-18 0.00176395)
          8.4             (0.0988719 1.69497e-18 0.00150592)
         8.45             (-1e+300 -1e+300 -1e+300)
          8.5             (-1e+300 -1e+300 -1e+300)
         8.55             (-1e+300 -1e+300 -1e+300)
          8.6             (-1e+300 -1e+300 -1e+300)
         8.65             (-1e+300 -1e+300 -1e+300)
          8.7             (-1e+300 -1e+300 -1e+300)
         8.75             (-1e+300 -1e+300 -1e+300)
          8.8             (-1e+300 -1e+300 -1e+300)
         8.85             (-1e+300 -1e+300 -1e+300)
          8.9             (-1e+300 -1e+300 -1e+300)
         8.95             (-1e+300 -1e+300 -1e+300)
            9             (-1e+300 -1e+300 -1e+300)
         9.05             (-1e+300 -1e+300 -1e+300)
          9.1             (-1e+300 -1e+300 -1e+300)
         9.15             (-1e+300 -1e+300 -1e+300)
          9.2             (-1e+300 -1e+300 -1e+300)
         9.25             (-0.10226 2.06216e-18 -0.000966203)
          9.3             (-0.102373 2.06894e-18 -0.000600653)
         9.35             (-0.0989654 2.15395e-18 -0.000211092)
          9.4             (-0.140763 1.69023e-18 0.000290011)
         9.45             (-0.121852 1.73438e-18 0.000684975)
          9.5             (-0.0984478 1.69584e-18 0.00106309)
         9.55             (-0.0700476 1.34284e-18 0.00140832)
          9.6             (-0.0360989 1.58202e-18 0.0017082)
         9.65             (0.00313672 1.84097e-18 0.00194628)
          9.7             (0.0335628 1.78553e-18 0.00215006)
         9.75             (0.0635363 1.9529e-18 0.00226053)
          9.8             (0.0915074 1.87599e-18 0.00231385)
         9.85             (0.116312 1.70382e-18 0.00230006)
          9.9             (0.0766749 -9.86673e-19 0.00202637)
         9.95             (0.0878372 -1.03532e-18 0.00186137)
           10             (0.095929 -8.27406e-19 0.00163412)
        10.05             (-1e+300 -1e+300 -1e+300)
         10.1             (-1e+300 -1e+300 -1e+300)
        10.15             (-1e+300 -1e+300 -1e+300)
         10.2             (-1e+300 -1e+300 -1e+300)
        10.25             (-1e+300 -1e+300 -1e+300)
         10.3             (-1e+300 -1e+300 -1e+300)
        10.35             (-1e+300 -1e+300 -1e+300)
         10.4             (-1e+300 -1e+300 -1e+300)
        10.45             (-1e+300 -1e+300 -1e+300)
         10.5             (-1e+300 -1e+300 -1e+300)
        10.55             (-1e+300 -1e+300 -1e+300)
         10.6             (-1e+300 -1e+300 -1e+300)
        10.65             (-1e+300 -1e+300 -1e+300)
         10.7             (-1e+300 -1e+300 -1e+300)
        10.75             (-1e+300 -1e+300 -1e+300)
         10.8             (-1e+300 -1e+300 -1e+300)
        10.85             (-1e+300 -1e+300 -1e+300)
         10.9             (-0.102733 -1.38802e-18 -0.000800313)
        10.95             (-0.101102 -1.41427e-18 -0.000422566)
           11             (-0.148726 -1.03505e-18 0.000110693)
        11.05             (-0.131746 -1.06312e-18 0.000501283)
         11.1             (-0.110782 -1.04914e-18 0.000886977)
        11.15             (-0.0850513 -1.04071e-18 0.00124918)
         11.2             (-0.0539774 -6.71463e-19 0.00157286)
        11.25             (-0.0171034 -1.22799e-18 0.00184475)
         11.3             (0.0180718 -5.79279e-19 0.00207216)
        11.35             (0.048519 -6.28125e-19 0.00222017)
         11.4             (0.0776398 -3.41656e-19 0.00230952)
        11.45             (0.104184 -1.69855e-20 0.00233362)
         11.5             (0.127053 1.63494e-19 0.00228475)
        11.55             (0.0825431 -8.50478e-19 0.00194488)
         11.6             (0.0922416 -7.74521e-19 0.00174955)
        11.65             (0.0986911 -7.77544e-19 0.00149575)
         11.7             (-1e+300 -1e+300 -1e+300)
        11.75             (-1e+300 -1e+300 -1e+300)
         11.8             (-1e+300 -1e+300 -1e+300)
        11.85             (-1e+300 -1e+300 -1e+300)
         11.9             (-1e+300 -1e+300 -1e+300)
        11.95             (-1e+300 -1e+300 -1e+300)
           12             (-1e+300 -1e+300 -1e+300)
        12.05             (-1e+300 -1e+300 -1e+300)
         12.1             (-1e+300 -1e+300 -1e+300)
        12.15             (-1e+300 -1e+300 -1e+300)
         12.2             (-1e+300 -1e+300 -1e+300)
        12.25             (-1e+300 -1e+300 -1e+300)
         12.3             (-1e+300 -1e+300 -1e+300)
        12.35             (-1e+300 -1e+300 -1e+300)
         12.4             (-1e+300 -1e+300 -1e+300)
        12.45             (-1e+300 -1e+300 -1e+300)
         12.5             (-0.102292 3.29205e-18 -0.000987842)
        12.55             (-0.102467 3.27319e-18 -0.000625452)
         12.6             (-0.0991186 3.30193e-18 -0.000238613)
        12.65             (-0.14087 2.20164e-18 0.000313975)
         12.7             (-0.121664 2.15865e-18 0.000709002)
        12.75             (-0.0985926 2.14345e-18 0.00108268)
         12.8             (-0.0703297 2.11265e-18 0.00142641)
        12.85             (-0.0364995 2.57202e-18 0.00172551)
         12.9             (0.00278186 3.4006e-18 0.00196412)
        12.95             (0.033221 2.67692e-18 0.00216941)
           13             (0.0632212 2.10179e-18 0.00228752)
        13.05             (0.091232 2.24453e-18 0.00234715)
         13.1             (0.116094 1.82337e-18 0.002335)
        13.15             (0.13681 1.77826e-18 0.00225078)
         13.2             (0.0875986 2.57111e-18 0.00184619)
        13.25             (0.095739 2.60277e-18 0.0016236)
         13.3             (-1e+300 -1e+300 -1e+300)
        13.35             (-1e+300 -1e+300 -1e+300)
         13.4             (-1e+300 -1e+300 -1e+300)
        13.45             (-1e+300 -1e+300 -1e+300)
         13.5             (-1e+300 -1e+300 -1e+300)
        13.55             (-1e+300 -1e+300 -1e+300)
         13.6             (-1e+300 -1e+300 -1e+300)
        13.65             (-1e+300 -1e+300 -1e+300)
         13.7             (-1e+300 -1e+300 -1e+300)
        13.75             (-1e+300 -1e+300 -1e+300)
         13.8             (-1e+300 -1e+300 -1e+300)
        13.85             (-1e+300 -1e+300 -1e+300)
         13.9             (-1e+300 -1e+300 -1e+300)
        13.95             (-1e+300 -1e+300 -1e+300)
           14             (-1e+300 -1e+300 -1e+300)
        14.05             (-1e+300 -1e+300 -1e+300)
         14.1             (-1e+300 -1e+300 -1e+300)
        14.15             (-0.102928 1.16569e-18 -0.000810424)
         14.2             (-0.101338 1.16545e-18 -0.000436093)
        14.25             (-0.148817 2.43565e-18 0.000133389)
         14.3             (-0.131922 2.4489e-18 0.000522244)
        14.35             (-0.110621 2.40785e-18 0.000909261)
         14.4             (-0.0852574 2.40382e-18 0.00126703)
        14.45             (-0.0543183 2.54779e-18 0.00158915)
         14.5             (-0.0175571 2.51843e-18 0.00186027)
        14.55             (0.0177034 1.59516e-18 0.00209016)
         14.6             (0.0481935 1.97381e-18 0.00223988)
        14.65             (0.0773523 1.85387e-18 0.00233303)
         14.7             (0.103952 1.72303e-18 0.00235618)
        14.75             (0.126895 1.54293e-18 0.00230623)
         14.8             (0.08225 2.62515e-19 0.0019267)
        14.85             (0.0919994 3.78696e-19 0.00173194)
         14.9             (0.0985038 4.67318e-19 0.00147811)
        14.95             (-1e+300 -1e+300 -1e+300)
           15             (-1e+300 -1e+300 -1e+300)
        15.05             (-1e+300 -1e+300 -1e+300)
         15.1             (-1e+300 -1e+300 -1e+300)
        15.15             (-1e+300 -1e+300 -1e+300)
         15.2             (-1e+300 -1e+300 -1e+300)
        15.25             (-1e+300 -1e+300 -1e+300)
         15.3             (-1e+300 -1e+300 -1e+300)
        15.35             (-1e+300 -1e+300 -1e+300)
         15.4             (-1e+300 -1e+300 -1e+300)
        15.45             (-1e+300 -1e+300 -1e+300)
         15.5             (-1e+300 -1e+300 -1e+300)
        15.55             (-1e+300 -1e+300 -1e+300)
         15.6             (-1e+300 -1e+300 -1e+300)
        15.65             (-1e+300 -1e+300 -1e+300)
         15.7             (-1e+300 -1e+300 -1e+300)
        15.75             (-0.102449 1.78929e-18 -0.00101926)
         15.8             (-0.102675 1.74866e-18 -0.000655106)
        15.85             (-0.09938 1.79833e-18 -0.00026545)
         15.9             (-0.140951 4.43434e-18 0.000314054)
        15.95             (-0.121843 4.3989e-18 0.000712834)
           16             (-0.0988671 4.35769e-18 0.00109082)
        16.05             (-0.0707067 4.20067e-18 0.00143954)
         16.1             (-0.0369816 4.02916e-18 0.00174381)
        16.15             (0.00234736 4.92603e-18 0.00198917)
         16.2             (0.0327947 3.45686e-18 0.00219291)
        16.25             (0.0627875 3.41042e-18 0.00232484)
         16.3             (0.0908182 3.02422e-18 0.00239205)
        16.35             (0.115721 2.77043e-18 0.00238663)
         16.4             (0.136495 2.83882e-18 0.00230848)
        16.45             (0.0873522 3.39491e-18 0.00188496)
         16.5             (0.0955564 3.56674e-18 0.00166719)
        16.55             (-1e+300 -1e+300 -1e+300)
         16.6             (-1e+300 -1e+300 -1e+300)
        16.65             (-1e+300 -1e+300 -1e+300)
         16.7             (-1e+300 -1e+300 -1e+300)
        16.75             (-1e+300 -1e+300 -1e+300)
         16.8             (-1e+300 -1e+300 -1e+300)
        16.85             (-1e+300 -1e+300 -1e+300)
         16.9             (-1e+300 -1e+300 -1e+300)
        16.95             (-1e+300 -1e+300 -1e+300)
           17             (-1e+300 -1e+300 -1e+300)
        17.05             (-1e+300 -1e+300 -1e+300)
         17.1             (-1e+300 -1e+300 -1e+300)
        17.15             (-1e+300 -1e+300 -1e+300)
         17.2             (-1e+300 -1e+300 -1e+300)
        17.25             (-1e+300 -1e+300 -1e+300)
         17.3             (-1e+300 -1e+300 -1e+300)
        17.35             (-1e+300 -1e+300 -1e+300)
         17.4             (-0.10294 4.927e-18 -0.000876293)
        17.45             (-0.101413 4.88194e-18 -0.00051056)
         17.5             (-0.148673 3.72336e-18 7.01483e-05)
        17.55             (-0.131855 3.69331e-18 0.000447238)
         17.6             (-0.110636 3.67699e-18 0.000829015)
        17.65             (-0.0847202 3.53152e-18 0.0011878)
         17.7             (-0.0543679 3.30495e-18 0.00150489)
        17.75             (-0.0178057 3.06808e-18 0.00177562)
         17.8             (0.017557 3.27046e-18 0.00200508)
        17.85             (0.0480552 3.53627e-18 0.00216302)
         17.9             (0.0772335 3.20548e-18 0.00226344)
        17.95             (0.103871 3.41994e-18 0.00229367)
           18             (0.126865 3.06698e-18 0.00225308)
        18.05             (0.0819575 3.14693e-18 0.00187205)
         18.1             (0.0917395 3.2423e-18 0.00169206)
        18.15             (0.0982828 3.24611e-18 0.00145462)
         18.2             (-1e+300 -1e+300 -1e+300)
        18.25             (-1e+300 -1e+300 -1e+300)
         18.3             (-1e+300 -1e+300 -1e+300)
        18.35             (-1e+300 -1e+300 -1e+300)
         18.4             (-1e+300 -1e+300 -1e+300)
        18.45             (-1e+300 -1e+300 -1e+300)
         18.5             (-1e+300 -1e+300 -1e+300)
        18.55             (-1e+300 -1e+300 -1e+300)
         18.6             (-1e+300 -1e+300 -1e+300)
        18.65             (-1e+300 -1e+300 -1e+300)
         18.7             (-1e+300 -1e+300 -1e+300)
        18.75             (-1e+300 -1e+300 -1e+300)
         18.8             (-1e+300 -1e+300 -1e+300)
        18.85             (-1e+300 -1e+300 -1e+300)
         18.9             (-1e+300 -1e+300 -1e+300)
        18.95             (-1e+300 -1e+300 -1e+300)
           19             (-0.1022 -3.98033e-18 -0.000940606)
        19.05             (-0.102504 -3.98568e-18 -0.000592771)
         19.1             (-0.0992708 -3.98711e-18 -0.00022189)
        19.15             (-0.141391 1.06474e-19 0.000345411)
         19.2             (-0.122274 1.12786e-19 0.00072206)
        19.25             (-0.0988086 1.02546e-19 0.00108109)
         19.3             (-0.0702277 2.04266e-19 0.00140807)
        19.35             (-0.0372946 3.65009e-19 0.00168479)
         19.4             (0.00200351 -6.12088e-20 0.00190654)
        19.45             (0.0326126 4.41778e-19 0.00208698)
         19.5             (0.0626903 1.06734e-18 0.00219984)
        19.55             (0.0908386 7.27892e-19 0.00224533)
         19.6             (0.115881 8.50291e-19 0.00222041)
        19.65             (0.136808 8.32304e-19 0.00212584)
         19.7             (0.0872051 -3.04922e-18 0.00169373)
        19.75             (0.0954146 -2.88371e-18 0.00147052)
         19.8             (-1e+300 -1e+300 -1e+300)
        19.85             (-1e+300 -1e+300 -1e+300)
         19.9             (-1e+300 -1e+300 -1e+300)
        19.95             (-1e+300 -1e+300 -1e+300)
           20             (-1e+300 -1e+300 -1e+300)
        20.05             (-1e+300 -1e+300 -1e+300)
         20.1             (-1e+300 -1e+300 -1e+300)
        20.15             (-1e+300 -1e+300 -1e+300)
         20.2             (-1e+300 -1e+300 -1e+300)
        20.25             (-1e+300 -1e+300 -1e+300)
         20.3             (-1e+300 -1e+300 -1e+300)
        20.35             (-1e+300 -1e+300 -1e+300)
         20.4             (-1e+300 -1e+300 -1e+300)
        20.45             (-1e+300 -1e+300 -1e+300)
         20.5             (-1e+300 -1e+300 -1e+300)
        20.55             (-1e+300 -1e+300 -1e+300)
         20.6             (-1e+300 -1e+300 -1e+300)
        20.65             (-0.10305 -1.04018e-18 -0.000679355)
         20.7             (-0.101578 -1.05829e-18 -0.00030566)
        20.75             (-0.14966 1.05468e-18 0.000266604)
         20.8             (-0.132881 1.1267e-18 0.000644167)
        20.85             (-0.111663 1.11814e-18 0.00101849)
         20.9             (-0.085764 1.14525e-18 0.00136413)
        20.95             (-0.0544436 1.62655e-18 0.00166792)
           21             (-0.0188517 1.41355e-18 0.00191208)
        21.05             (0.0166462 7.79233e-19 0.00212199)
         21.1             (0.0473323 -8.94793e-21 0.00224005)
        21.15             (0.076652 1.5339e-19 0.00230449)
         21.2             (0.103451 -7.87951e-21 0.00229839)
        21.25             (0.126632 -7.44474e-20 0.00222018)
         21.3             (0.0818025 -3.71799e-19 0.00181383)
        21.35             (0.0916426 -1.71665e-19 0.0015979)
         21.4             (0.0982358 -1.76327e-19 0.00132647)
        21.45             (-1e+300 -1e+300 -1e+300)
         21.5             (-1e+300 -1e+300 -1e+300)
        21.55             (-1e+300 -1e+300 -1e+300)
         21.6             (-1e+300 -1e+300 -1e+300)
        21.65             (-1e+300 -1e+300 -1e+300)
         21.7             (-1e+300 -1e+300 -1e+300)
        21.75             (-1e+300 -1e+300 -1e+300)
         21.8             (-1e+300 -1e+300 -1e+300)
        21.85             (-1e+300 -1e+300 -1e+300)
         21.9             (-1e+300 -1e+300 -1e+300)
        21.95             (-1e+300 -1e+300 -1e+300)
           22             (-1e+300 -1e+300 -1e+300)
        22.05             (-1e+300 -1e+300 -1e+300)
         22.1             (-1e+300 -1e+300 -1e+300)
        22.15             (-1e+300 -1e+300 -1e+300)
         22.2             (-1e+300 -1e+300 -1e+300)
        22.25             (-0.102517 -2.39489e-18 -0.000845262)
         22.3             (-0.102868 -2.39136e-18 -0.000462974)
        22.35             (-0.0996843 -2.32469e-18 -6.08852e-05)
         22.4             (-0.142245 4.3907e-19 0.00051462)
        22.45             (-0.123239 4.67267e-19 0.000915321)
         22.5             (-0.099859 4.63879e-19 0.00129156)
        22.55             (-0.0713554 4.66926e-19 0.00162864)
         22.6             (-0.0373634 2.24102e-20 0.00191294)
        22.65             (0.000936481 9.55871e-21 0.00212894)
         22.7             (0.0315414 5.04971e-19 0.00230385)
        22.75             (0.0616533 -1.50863e-20 0.00238557)
         22.8             (0.0898967 1.23129e-19 0.00240655)
        22.85             (0.115071 3.2216e-20 0.00235226)
         22.9             (0.136163 3.22373e-20 0.00222312)
        22.95             (0.0870849 -4.72175e-18 0.00176802)
           23             (0.095394 -4.70101e-18 0.00150216)
        23.05             (-1e+300 -1e+300 -1e+300)
         23.1             (-1e+300 -1e+300 -1e+300)
        23.15             (-1e+300 -1e+300 -1e+300)
         23.2             (-1e+300 -1e+300 -1e+300)
        23.25             (-1e+300 -1e+300 -1e+300)
         23.3             (-1e+300 -1e+300 -1e+300)
        23.35             (-1e+300 -1e+300 -1e+300)
         23.4             (-1e+300 -1e+300 -1e+300)
        23.45             (-1e+300 -1e+300 -1e+300)
         23.5             (-1e+300 -1e+300 -1e+300)
        23.55             (-1e+300 -1e+300 -1e+300)
         23.6             (-1e+300 -1e+300 -1e+300)
        23.65             (-1e+300 -1e+300 -1e+300)
         23.7             (-1e+300 -1e+300 -1e+300)
        23.75             (-1e+300 -1e+300 -1e+300)
         23.8             (-1e+300 -1e+300 -1e+300)
        23.85             (-1e+300 -1e+300 -1e+300)
         23.9             (-0.103361 -3.67106e-19 -0.000658088)
        23.95             (-0.101958 -3.95801e-19 -0.00024446)
           24             (-0.0971272 -3.60394e-19 0.000171061)
        24.05             (-0.133495 2.22811e-18 0.000769073)
         24.1             (-0.112425 2.19662e-18 0.00117526)
        24.15             (-0.0866535 2.1134e-18 0.00154694)
         24.2             (-0.0554574 1.74325e-18 0.00186922)
        24.25             (-0.0188115 1.9188e-18 0.00212957)
         24.3             (0.0161103 1.89386e-18 0.0023366)
        24.35             (0.0461877 1.86287e-18 0.00244783)
         24.4             (0.0755169 1.91661e-18 0.00249914)
        24.45             (0.102404 2.17999e-18 0.00247637)
         24.5             (0.125717 2.07997e-18 0.00237351)
        24.55             (0.0818077 -8.42083e-19 0.00193768)
         24.6             (0.091733 -8.89467e-19 0.00168413)
        24.65             (0.0984127 -8.99477e-19 0.001372)
         24.7             (-1e+300 -1e+300 -1e+300)
        24.75             (-1e+300 -1e+300 -1e+300)
         24.8             (-1e+300 -1e+300 -1e+300)
        24.85             (-1e+300 -1e+300 -1e+300)
         24.9             (-1e+300 -1e+300 -1e+300)
        24.95             (-1e+300 -1e+300 -1e+300)
           25             (-1e+300 -1e+300 -1e+300)
        25.05             (-1e+300 -1e+300 -1e+300)
         25.1             (-1e+300 -1e+300 -1e+300)
        25.15             (-1e+300 -1e+300 -1e+300)
         25.2             (-1e+300 -1e+300 -1e+300)
        25.25             (-1e+300 -1e+300 -1e+300)
         25.3             (-1e+300 -1e+300 -1e+300)
        25.35             (-1e+300 -1e+300 -1e+300)
         25.4             (-1e+300 -1e+300 -1e+300)
        25.45             (-1e+300 -1e+300 -1e+300)
         25.5             (-0.102757 2.96772e-18 -0.000840764)
        25.55             (-0.103178 2.941e-18 -0.000419867)
         25.6             (-0.100066 2.90572e-18 1.92946e-05)
        25.65             (-0.142769 3.33655e-18 0.000624133)
         25.7             (-0.12392 3.34416e-18 0.00105576)
        25.75             (-0.100668 3.29203e-18 0.00145737)
         25.8             (-0.0722811 3.17738e-18 0.0018129)
        25.85             (-0.0384054 3.61361e-18 0.00210836)
         25.9             (0.000710816 3.63342e-18 0.00232998)
        25.95             (0.0305486 3.5873e-18 0.00248896)
           26             (0.0606928 3.11242e-18 0.00255949)
        26.05             (0.0890213 2.88371e-18 0.00256099)
         26.1             (0.11432 2.95765e-18 0.00248324)
        26.15             (0.135567 2.62656e-18 0.0023248)
         26.2             (0.08697 1.99308e-18 0.00183782)
        26.25             (0.0953681 2.02437e-18 0.00153497)
         26.3             (-1e+300 -1e+300 -1e+300)